Job started on tiger-r11n1 at Tue Dec 29 13:34:25 EST 2015
 argument  1 = Mol
  Unable to open Mol --- appending .nw
                                         
                                         
 
 
              Northwest Computational Chemistry Package (NWChem) 6.6
              ------------------------------------------------------
 
 
                    Environmental Molecular Sciences Laboratory
                       Pacific Northwest National Laboratory
                                Richland, WA 99352
 
                              Copyright (c) 1994-2015
                       Pacific Northwest National Laboratory
                            Battelle Memorial Institute
 
             NWChem is an open-source computational chemistry package
                        distributed under the terms of the
                      Educational Community License (ECL) 2.0
             A copy of the license is included with this distribution
                              in the LICENSE.TXT file
 
                                  ACKNOWLEDGMENT
                                  --------------

            This software and its documentation were developed at the
            EMSL at Pacific Northwest National Laboratory, a multiprogram
            national laboratory, operated for the U.S. Department of Energy
            by Battelle under Contract Number DE-AC05-76RL01830. Support
            for this work was provided by the Department of Energy Office
            of Biological and Environmental Research, Office of Basic
            Energy Sciences, and the Office of Advanced Scientific Computing.


           Job information
           ---------------

    hostname        = tiger-r11n1
    program         = /home/EAC/nwchem-6.6/bin/LINUX64/nwchem
    date            = Tue Dec 29 13:34:25 2015

    compiled        = Thu_Dec_03_14:20:45_2015
    source          = /home/EAC/nwchem-6.6
    nwchem branch   = 6.6
    nwchem revision = 27746
    ga revision     = 10594
    input           = Mol.nw
    prefix          = Molecule.
    data base       = ./Molecule.db
    status          = startup
    nproc           =        1
    time left       =     -1s



           Memory information
           ------------------

    heap     =   13107196 doubles =    100.0 Mbytes
    stack    =   13107201 doubles =    100.0 Mbytes
    global   =   26214400 doubles =    200.0 Mbytes (distinct from heap & stack)
    total    =   52428797 doubles =    400.0 Mbytes
    verify   = yes
    hardfail = no 


           Directory information
           ---------------------
 
  0 permanent = .
  0 scratch   = .
 
 
 
 
                                NWChem Input Module
                                -------------------
 
 

 Scaling coordinates for geometry "geometry" by  1.889725989
 (inverse scale =  0.529177249)

 C1  symmetry detected

          ------
          auto-z
          ------
 
 
                             Geometry "geometry" -> ""
                             -------------------------
 
 Output coordinates in angstroms (scale by  1.889725989 to convert to a.u.)
 
  No.       Tag          Charge          X              Y              Z
 ---- ---------------- ---------- -------------- -------------- --------------
    1 C                    6.0000    -1.19049717    -0.69137389    -0.00047619
    2 C                    6.0000    -1.15647565     0.70544915    -0.00025446
    3 C                    6.0000     1.13577219     0.73944091     0.00059855
    4 C                    6.0000     1.21032461    -0.65575721     0.00098829
    5 C                    6.0000     0.01980272    -1.38723751     0.00008874
    6 H                    1.0000     0.03288366    -2.47377274    -0.00285022
    7 H                    1.0000     2.17682169    -1.14955477    -0.00436297
    8 H                    1.0000     2.04740138     1.33490248    -0.00387971
    9 H                    1.0000    -2.08555389     1.27276263     0.00361959
   10 H                    1.0000    -2.14080863    -1.21606434     0.00355066
   11 N                    7.0000    -0.02061492     1.42408544    -0.00024957
 
      Atomic Mass 
      ----------- 
 
      C                 12.000000
      H                  1.007825
      N                 14.003070
 

 Effective nuclear repulsion energy (a.u.)     205.4908627519

            Nuclear Dipole moment (a.u.) 
            ----------------------------
        X                 Y               Z
 ---------------- ---------------- ----------------
    -0.0000000000    -0.0000000000     0.0000000000
 


                                Z-matrix (autoz)
                                -------- 

 Units are Angstrom for bonds and degrees for angles
 
      Type          Name      I     J     K     L     M      Value
      ----------- --------  ----- ----- ----- ----- ----- ----------
    1 Stretch                  1     2                       1.39724
    2 Stretch                  1     5                       1.39608
    3 Stretch                  1    10                       1.08555
    4 Stretch                  2     9                       1.08860
    5 Stretch                  2    11                       1.34410
    6 Stretch                  3     4                       1.39719
    7 Stretch                  3     8                       1.08888
    8 Stretch                  3    11                       1.34386
    9 Stretch                  4     5                       1.39729
   10 Stretch                  4     7                       1.08535
   11 Stretch                  5     6                       1.08662
   12 Bend                     1     2     9               120.01365
   13 Bend                     1     2    11               123.71596
   14 Bend                     1     5     4               118.53581
   15 Bend                     1     5     6               120.58637
   16 Bend                     2     1     5               118.50156
   17 Bend                     2     1    10               120.29915
   18 Bend                     2    11     3               117.05142
   19 Bend                     3     4     5               118.50868
   20 Bend                     3     4     7               120.12135
   21 Bend                     4     3     8               120.09303
   22 Bend                     4     3    11               123.68655
   23 Bend                     4     5     6               120.87762
   24 Bend                     5     1    10               121.19867
   25 Bend                     5     4     7               121.36881
   26 Bend                     8     3    11               116.21981
   27 Bend                     9     2    11               116.27004
   28 Torsion                  1     2    11     3          -0.05129
   29 Torsion                  1     5     4     3          -0.03189
   30 Torsion                  1     5     4     7        -179.64032
   31 Torsion                  2     1     5     4           0.00644
   32 Torsion                  2     1     5     6        -179.82922
   33 Torsion                  2    11     3     4           0.02313
   34 Torsion                  2    11     3     8         179.73775
   35 Torsion                  3     4     5     6         179.80328
   36 Torsion                  3    11     2     9         179.73202
   37 Torsion                  4     5     1    10        -179.70810
   38 Torsion                  5     1     2     9        -179.73846
   39 Torsion                  5     1     2    11           0.03714
   40 Torsion                  5     4     3     8        -179.68625
   41 Torsion                  5     4     3    11           0.01785
   42 Torsion                  6     5     1    10           0.45623
   43 Torsion                  6     5     4     7           0.19484
   44 Torsion                  7     4     3     8          -0.07278
   45 Torsion                  7     4     3    11         179.63133
   46 Torsion                  9     2     1    10          -0.02125
   47 Torsion                 10     1     2    11         179.75434
 
 
            XYZ format geometry
            -------------------
    11
 geometry
 C                    -1.19049717    -0.69137389    -0.00047619
 C                    -1.15647565     0.70544915    -0.00025446
 C                     1.13577219     0.73944091     0.00059855
 C                     1.21032461    -0.65575721     0.00098829
 C                     0.01980272    -1.38723751     0.00008874
 H                     0.03288366    -2.47377274    -0.00285022
 H                     2.17682169    -1.14955477    -0.00436297
 H                     2.04740138     1.33490248    -0.00387971
 H                    -2.08555389     1.27276263     0.00361959
 H                    -2.14080863    -1.21606434     0.00355066
 N                    -0.02061492     1.42408544    -0.00024957
 
 ==============================================================================
                                internuclear distances
 ------------------------------------------------------------------------------
       center one      |      center two      | atomic units |  angstroms
 ------------------------------------------------------------------------------
    2 C                |   1 C                |     2.64040  |     1.39724
    4 C                |   3 C                |     2.64030  |     1.39719
    5 C                |   1 C                |     2.63822  |     1.39608
    5 C                |   4 C                |     2.64049  |     1.39729
    6 H                |   5 C                |     2.05341  |     1.08662
    7 H                |   4 C                |     2.05101  |     1.08535
    8 H                |   3 C                |     2.05769  |     1.08888
    9 H                |   2 C                |     2.05715  |     1.08860
   10 H                |   1 C                |     2.05138  |     1.08555
   11 N                |   2 C                |     2.53999  |     1.34410
   11 N                |   3 C                |     2.53953  |     1.34386
 ------------------------------------------------------------------------------
                         number of included internuclear distances:         11
 ==============================================================================



 ==============================================================================
                                 internuclear angles
 ------------------------------------------------------------------------------
        center 1       |       center 2       |       center 3       |  degrees
 ------------------------------------------------------------------------------
    2 C                |   1 C                |   5 C                |   118.50
    2 C                |   1 C                |  10 H                |   120.30
    5 C                |   1 C                |  10 H                |   121.20
    1 C                |   2 C                |   9 H                |   120.01
    1 C                |   2 C                |  11 N                |   123.72
    9 H                |   2 C                |  11 N                |   116.27
    4 C                |   3 C                |   8 H                |   120.09
    4 C                |   3 C                |  11 N                |   123.69
    8 H                |   3 C                |  11 N                |   116.22
    3 C                |   4 C                |   5 C                |   118.51
    3 C                |   4 C                |   7 H                |   120.12
    5 C                |   4 C                |   7 H                |   121.37
    1 C                |   5 C                |   4 C                |   118.54
    1 C                |   5 C                |   6 H                |   120.59
    4 C                |   5 C                |   6 H                |   120.88
    2 C                |  11 N                |   3 C                |   117.05
 ------------------------------------------------------------------------------
                            number of included internuclear angles:         16
 ==============================================================================





 Summary of "ao basis" -> "" (cartesian)
 ------------------------------------------------------------------------------
       Tag                 Description            Shells   Functions and Types
 ---------------- ------------------------------  ------  ---------------------
 *                          6-31G**                   on all atoms 




 Summary of "cd basis" -> "" (cartesian)
 ------------------------------------------------------------------------------
       Tag                 Description            Shells   Functions and Types
 ---------------- ------------------------------  ------  ---------------------
 *                  Ahlrichs Coulomb Fitting          on all atoms 


 
 
                           NWChem Geometry Optimization
                           ----------------------------
 
 
 maximum gradient threshold         (gmax) =   0.000450
 rms gradient threshold             (grms) =   0.000300
 maximum cartesian step threshold   (xmax) =   0.001800
 rms cartesian step threshold       (xrms) =   0.001200
 fixed trust radius                (trust) =   0.300000
 maximum step size to saddle      (sadstp) =   0.100000
 energy precision                  (eprec) =   5.0D-06
 maximum number of steps          (nptopt) =   20
 initial hessian option           (inhess) =    0
 line search option               (linopt) =    1
 hessian update option            (modupd) =    1
 saddle point option              (modsad) =    0
 initial eigen-mode to follow     (moddir) =    0
 initial variable to follow       (vardir) =    0
 follow first negative mode     (firstneg) =    T
 apply conjugacy                    (opcg) =    F
 source of zmatrix                         =   autoz   


          -------------------
          Energy Minimization
          -------------------

 
 Names of Z-matrix variables 
    1              2              3              4              5         
    6              7              8              9             10         
   11             12             13             14             15         
   16             17             18             19             20         
   21             22             23             24             25         
   26             27             28             29             30         
   31             32             33             34             35         
   36             37             38             39             40         
   41             42             43             44             45         
   46             47         
 
 Variables with the same non-blank name are constrained to be equal
 
 
 Using old Hessian from previous optimization

          --------
          Step   0
          --------
 
 
                         Geometry "geometry" -> "geometry"
                         ---------------------------------
 
 Output coordinates in angstroms (scale by  1.889725989 to convert to a.u.)
 
  No.       Tag          Charge          X              Y              Z
 ---- ---------------- ---------- -------------- -------------- --------------
    1 C                    6.0000    -1.19049717    -0.69137389    -0.00047619
    2 C                    6.0000    -1.15647565     0.70544915    -0.00025446
    3 C                    6.0000     1.13577219     0.73944091     0.00059855
    4 C                    6.0000     1.21032461    -0.65575721     0.00098829
    5 C                    6.0000     0.01980272    -1.38723751     0.00008874
    6 H                    1.0000     0.03288366    -2.47377274    -0.00285022
    7 H                    1.0000     2.17682169    -1.14955477    -0.00436297
    8 H                    1.0000     2.04740138     1.33490248    -0.00387971
    9 H                    1.0000    -2.08555389     1.27276263     0.00361959
   10 H                    1.0000    -2.14080863    -1.21606434     0.00355066
   11 N                    7.0000    -0.02061492     1.42408544    -0.00024957
 
      Atomic Mass 
      ----------- 
 
      C                 12.000000
      H                  1.007825
      N                 14.003070
 

 Effective nuclear repulsion energy (a.u.)     205.4908627519

            Nuclear Dipole moment (a.u.) 
            ----------------------------
        X                 Y               Z
 ---------------- ---------------- ----------------
    -0.0000000000    -0.0000000000     0.0000000000
 
 
                                 NWChem DFT Module
                                 -----------------
 
 
                      Basis "ao basis" -> "ao basis" (cartesian)
                      -----
  C (Carbon)
  ----------
            Exponent  Coefficients 
       -------------- ---------------------------------------------------------
  1 S  3.04752490E+03  0.001835
  1 S  4.57369510E+02  0.014037
  1 S  1.03948690E+02  0.068843
  1 S  2.92101550E+01  0.232184
  1 S  9.28666300E+00  0.467941
  1 S  3.16392700E+00  0.362312
 
  2 S  7.86827240E+00 -0.119332
  2 S  1.88128850E+00 -0.160854
  2 S  5.44249300E-01  1.143456
 
  3 P  7.86827240E+00  0.068999
  3 P  1.88128850E+00  0.316424
  3 P  5.44249300E-01  0.744308
 
  4 S  1.68714400E-01  1.000000
 
  5 P  1.68714400E-01  1.000000
 
  6 D  8.00000000E-01  1.000000
 
  H (Hydrogen)
  ------------
            Exponent  Coefficients 
       -------------- ---------------------------------------------------------
  1 S  1.87311370E+01  0.033495
  1 S  2.82539370E+00  0.234727
  1 S  6.40121700E-01  0.813757
 
  2 S  1.61277800E-01  1.000000
 
  3 P  1.10000000E+00  1.000000
 
  N (Nitrogen)
  ------------
            Exponent  Coefficients 
       -------------- ---------------------------------------------------------
  1 S  4.17351100E+03  0.001835
  1 S  6.27457900E+02  0.013995
  1 S  1.42902100E+02  0.068587
  1 S  4.02343300E+01  0.232241
  1 S  1.28202100E+01  0.469070
  1 S  4.39043700E+00  0.360455
 
  2 S  1.16263580E+01 -0.114961
  2 S  2.71628000E+00 -0.169118
  2 S  7.72218000E-01  1.145852
 
  3 P  1.16263580E+01  0.067580
  3 P  2.71628000E+00  0.323907
  3 P  7.72218000E-01  0.740895
 
  4 S  2.12031300E-01  1.000000
 
  5 P  2.12031300E-01  1.000000
 
  6 D  8.00000000E-01  1.000000
 


 Summary of "ao basis" -> "ao basis" (cartesian)
 ------------------------------------------------------------------------------
       Tag                 Description            Shells   Functions and Types
 ---------------- ------------------------------  ------  ---------------------
 C                          6-31G**                  6       15   3s2p1d
 H                          6-31G**                  3        5   2s1p
 N                          6-31G**                  6       15   3s2p1d


                      Basis "cd basis" -> "cd basis" (cartesian)
                      -----
  C (Carbon)
  ----------
            Exponent  Coefficients 
       -------------- ---------------------------------------------------------
  1 S  5.91553927E+02  0.315820
  1 S  1.72117940E+02  0.875039
  1 S  5.47992590E+01  2.307605
 
  2 S  1.89590940E+01  1.000000
 
  3 S  7.05993000E+00  1.000000
 
  4 S  2.79484900E+00  1.000000
 
  5 S  1.15863400E+00  1.000000
 
  6 S  4.94324000E-01  1.000000
 
  7 S  2.12969000E-01  1.000000
 
  8 P  3.27847358E-01  1.000000
 
  9 P  7.86833659E-01  1.000000
 
 10 P  1.97101832E+00  1.000000
 
 11 D  4.01330100E+00  1.000000
 
 12 D  1.24750500E+00  1.000000
 
 13 D  4.08148000E-01  1.000000
 
 14 F  9.00000000E-01  1.000000
 
  H (Hydrogen)
  ------------
            Exponent  Coefficients 
       -------------- ---------------------------------------------------------
  1 S  9.30813000E+00  0.034466
  1 S  2.30671800E+00  0.122534
 
  2 S  7.52012000E-01  1.000000
 
  3 S  2.73978000E-01  1.000000
 
  4 P  2.03270400E+00  1.000000
 
  5 P  7.90252000E-01  1.000000
 
  6 D  2.01954800E+00  1.000000
 
  N (Nitrogen)
  ------------
            Exponent  Coefficients 
       -------------- ---------------------------------------------------------
  1 S  7.91076935E+02  0.415675
  1 S  2.29450184E+02  1.147507
  1 S  7.28869600E+01  3.019358
 
  2 S  2.51815960E+01  1.000000
 
  3 S  9.37169700E+00  1.000000
 
  4 S  3.71065500E+00  1.000000
 
  5 S  1.53946300E+00  1.000000
 
  6 S  6.57553000E-01  1.000000
 
  7 S  2.83654000E-01  1.000000
 
  8 P  4.70739194E-01  1.000000
 
  9 P  1.12977407E+00  1.000000
 
 10 P  2.83008403E+00  1.000000
 
 11 D  5.83298650E+00  1.000000
 
 12 D  1.73268650E+00  1.000000
 
 13 D  5.45242500E-01  1.000000
 
 14 F  1.82648000E+00  1.000000
 


 Summary of "cd basis" -> "cd basis" (cartesian)
 ------------------------------------------------------------------------------
       Tag                 Description            Shells   Functions and Types
 ---------------- ------------------------------  ------  ---------------------
 C                  Ahlrichs Coulomb Fitting        14       44   7s3p3d1f
 H                  Ahlrichs Coulomb Fitting         6       15   3s2p1d
 N                  Ahlrichs Coulomb Fitting        14       44   7s3p3d1f




 Summary of "ao basis" -> "ao basis" (cartesian)
 ------------------------------------------------------------------------------
       Tag                 Description            Shells   Functions and Types
 ---------------- ------------------------------  ------  ---------------------
 C                          6-31G**                  6       15   3s2p1d
 H                          6-31G**                  3        5   2s1p
 N                          6-31G**                  6       15   3s2p1d


 
 solvent parameters
 solvname_short: h2o     
 solvname_long:  water                              
 dielec:       78.4000
 dielecinf:     1.7769
 aqueous SMD model solvent descriptors
 dielec:       78.4000
 sola:          0.8200

          ---------------
          -cosmo- solvent
          ---------------
 Cosmo: York-Karplus, doi: 10.1021/jp992097l
 dielectric constant -eps-     =  78.40
 screen = (eps-1)/(eps    )    =   0.98724
 surface charge correction     = lagrangian
 -lineq- algorithm             =   0
 -bem- low  level              =   3
 -bem- from -octahedral-
 gaussian surface charge width =   0.98000
 degree of switching           =   1.00000
 switching function tolerance  =   0.00010
 atomic radii = 
 --------------
    1  6.000  1.850
    2  6.000  1.850
    3  6.000  1.850
    4  6.000  1.850
    5  6.000  1.850
    6  1.000  1.200
    7  1.000  1.200
    8  1.000  1.200
    9  1.000  1.200
   10  1.000  1.200
   11  7.000  1.890

 solvent accessible surface
 --------------------------

 ---------- ATOMIC COORDINATES (A.U.) ------------ VDWR(ANG.) --
     1   -2.24971344   -1.30650720   -0.00089986     1.850
     2   -2.18542210    1.33310559   -0.00048085     1.850
     3    2.14629823    1.39734071    0.00113110     1.850
     4    2.28718188   -1.23920145    0.00186760     1.850
     5    0.03742171   -2.62149878    0.00016769     1.850
     6    0.06214111   -4.67475264   -0.00538613     1.200
     7    4.11359651   -2.17234353   -0.00824481     1.200
     8    3.86902761    2.52259991   -0.00733160     1.200
     9   -3.94112539    2.40517263    0.00684003     1.200
    10   -4.04554170   -2.29802839    0.00670978     1.200
    11   -0.03895654    2.69113126   -0.00047161     1.890
 number of segments per atom =        128
 number of   points per atom =        128
 atom (   nspa,  nppa )
 ----------------------
    1 (     49,     0 )       0
    2 (     48,     0 )       0
    3 (     48,     0 )       0
    4 (     50,     0 )       0
    5 (     46,     0 )       0
    6 (     48,     0 )       0
    7 (     54,     0 )       0
    8 (     56,     0 )       0
    9 (     54,     0 )       0
   10 (     54,     0 )       0
   11 (     62,     0 )       0
 number of -cosmo- surface points =      569
 molecular surface =    111.840 angstrom**2
 molecular volume  =     62.530 angstrom**3
 ...... end of -cosmo- initialization ......


 G(SMD-CDS) energy (kcal/mol)  =    -7.469
 SMD-CDS SASA (angstrom**2)    =    47.784

  Caching 1-el integrals 
 
            General Information
            -------------------
          SCF calculation type: DFT
          Wavefunction type:  closed shell.
          No. of atoms     :    11
          No. of electrons :    42
           Alpha electrons :    21
            Beta electrons :    21
          Charge           :     0
          Spin multiplicity:     1
          Use of symmetry is: off; symmetry adaption is: off
          Maximum number of iterations:  30
          This is a Direct SCF calculation.
          AO basis - number of functions:   115
                     number of shells:    51
          A Charge density fitting basis will be used.
          CD basis - number of functions:   339
                     number of shells:   114
          Convergence on energy requested: 1.00D-06
          Convergence on density requested: 1.00D-05
          Convergence on gradient requested: 5.00D-04
 
              XC Information
              --------------
                         B3LYP Method XC Potential
                     Hartree-Fock (Exact) Exchange  0.200          
                        Slater Exchange Functional  0.800 local    
                    Becke 1988 Exchange Functional  0.720 non-local
              Lee-Yang-Parr Correlation Functional  0.810          
                  VWN I RPA Correlation Functional  0.190 local    
 
             Grid Information
             ----------------
          Grid used for XC integration:  medium    
          Radial quadrature: Mura-Knowles        
          Angular quadrature: Lebedev. 
          Tag              B.-S. Rad. Rad. Pts. Rad. Cut. Ang. Pts.
          ---              ---------- --------- --------- ---------
          C                   0.70       49          10.0       434
          H                   0.35       45          11.0       434
          N                   0.65       49          10.0       434
          Grid pruning is: on 
          Number of quadrature shells:   519
          Spatial weights used:  Erf1
 
          Convergence Information
          -----------------------
          Convergence aids based upon iterative change in 
          total energy or number of iterations. 
          Levelshifting, if invoked, occurs when the 
          HOMO/LUMO gap drops below (HL_TOL): 1.00D-02
          DIIS, if invoked, will attempt to extrapolate 
          using up to (NFOCK): 10 stored Fock matrices.

                    Damping( 0%)  Levelshifting(0.5)       DIIS
                  --------------- ------------------- ---------------
          dE  on:    start            ASAP                start   
          dE off:    2 iters         30 iters            30 iters 

 
      Screening Tolerance Information
      -------------------------------
          Density screening/tol_rho: 1.00D-10
          AO Gaussian exp screening on grid/accAOfunc:  14
          CD Gaussian exp screening on grid/accCDfunc:  20
          XC Gaussian exp screening on grid/accXCfunc:  20
          Schwarz screening/accCoul: 1.00D-08

 
      Superposition of Atomic Density Guess
      -------------------------------------
 
 Sum of atomic energies:        -245.08617168
 
      Non-variational initial energy
      ------------------------------

 Total energy =    -249.013748
 1-e energy   =    -736.404609
 2-e energy   =     281.899998
 HOMO         =      -0.281181
 LUMO         =      -0.020751
 
   Time after variat. SCF:      0.9
 
      3 Center 2 Electron Integral Information
      ----------------------------------------
          Maximum number of 3-center 2e- integrals is:         4483275.
            This is reduced with Schwarz screening to:         2397408.
            Incore requires a per proc buffer size of:         2706604.
                  The minimum integral buffer size is:           76275
          Minimum dble words available (all nodes) is:        26201804
                   This is reduced (for later use) to:        25816920
                             Suggested buffer size is:         2706604
                              no. integral batches is:            1000

          Incore memory use for 3-center 2e- integrals is turned off. 
   Time prior to 1st pass:      0.9

 Grid_pts file          = ./Molecule.gridpts.0
 Record size in doubles =  12289        No. of grid_pts per rec  =   3070
 Max. records in memory =     82        Max. recs in file   = *********


           Memory utilization after 1st SCF pass: 
           Heap Space remaining (MW):       12.09            12085332
          Stack Space remaining (MW):       13.11            13106292

   convergence    iter        energy       DeltaE   RMS-Dens  Diis-err    time
 ---------------- ----- ----------------- --------- --------- ---------  ------
     COSMO solvation phase
 d= 0,ls=0.0,diis     1   -248.2523950053 -4.54D+02  6.69D-03  6.92D-01     7.5
 d= 0,ls=0.0,diis     2   -248.2880647475 -3.57D-02  4.43D-03  2.81D-01    13.9
 d= 0,ls=0.0,diis     3   -248.3030773311 -1.50D-02  2.19D-03  1.57D-01    20.7
 d= 0,ls=0.0,diis     4   -248.3190295250 -1.60D-02  5.40D-04  4.67D-03    27.5
 d= 0,ls=0.0,diis     5   -248.3195739820 -5.44D-04  1.32D-04  3.38D-04    34.2
  Resetting Diis
 d= 0,ls=0.0,diis     6   -248.3196163621 -4.24D-05  3.76D-05  2.96D-05    41.0
 d= 0,ls=0.0,diis     7   -248.3196202394 -3.88D-06  9.93D-06  7.40D-07    47.7
 d= 0,ls=0.0,diis     8   -248.3196202176  2.19D-08  5.71D-06  8.98D-07    54.5


         Total DFT energy =     -248.319620217574
      One electron energy =     -741.218302181668
           Coulomb energy =      323.040824470442
    Exchange-Corr. energy =      -35.875587630681
 Nuclear repulsion energy =      205.490862751930

    Dispersion correction =       -0.006157531707

 Numeric. integr. density =       42.000011503367

     Total iterative time =     53.6s


                                COSMO-SMD solvation results
                                ---------------------------
 Reference for the SMD model:
 Marenich, A. V.; Cramer, C. J.; Truhlar, D. G. J. Phys. Chem. B 2009, 113, 6378

         internal energy in solvent <Psi(s)|H|Psi(s)> =      -248.3035045011
   total free energy in solvent <Psi(s)|H+V/2|Psi(s)> =      -248.3138757628
 polarization energy contribution <Psi(s)|V/2|Psi(s)> =        -0.0103712617 (   -6.51 kcal/mol)
    total free energy in solvent including G(SMD-CDS) =      -248.3257777493
                       G(SMD-CDS) energy contribution =        -0.0119019865 (   -7.47 kcal/mol)
 
                       DFT Final Molecular Orbital Analysis
                       ------------------------------------
 
 Vector    6  Occ=2.000000D+00  E=-1.019859D+01
              MO Center= -1.2D+00, -6.9D-01, -4.7D-04, r^2= 4.1D-02
   Bfn.  Coefficient  Atom+Function         Bfn.  Coefficient  Atom+Function  
  ----- ------------  ---------------      ----- ------------  ---------------
     1      0.991355   1 C  s         
 
 Vector    7  Occ=2.000000D+00  E=-9.409074D-01
              MO Center= -1.2D-02,  8.3D-01, -2.2D-05, r^2= 1.2D+00
   Bfn.  Coefficient  Atom+Function         Bfn.  Coefficient  Atom+Function  
  ----- ------------  ---------------      ----- ------------  ---------------
   106      0.362474  11 N  s               102      0.325014  11 N  s         
    17      0.191226   2 C  s                32      0.191348   3 C  s         
   101     -0.161290  11 N  s         
 
 Vector    8  Occ=2.000000D+00  E=-8.018909D-01
              MO Center=  5.5D-03, -6.1D-01, -1.5D-05, r^2= 2.0D+00
   Bfn.  Coefficient  Atom+Function         Bfn.  Coefficient  Atom+Function  
  ----- ------------  ---------------      ----- ------------  ---------------
    62      0.285820   5 C  s                66      0.220899   5 C  s         
   106     -0.216708  11 N  s                 2      0.208396   1 C  s         
    47      0.207075   4 C  s               102     -0.184320  11 N  s         
 
 Vector    9  Occ=2.000000D+00  E=-7.599303D-01
              MO Center=  1.4D-03,  1.5D-01,  8.4D-05, r^2= 2.7D+00
   Bfn.  Coefficient  Atom+Function         Bfn.  Coefficient  Atom+Function  
  ----- ------------  ---------------      ----- ------------  ---------------
    17      0.240775   2 C  s                32     -0.240770   3 C  s         
    47     -0.211567   4 C  s                 2      0.210318   1 C  s         
    21      0.173277   2 C  s                36     -0.173320   3 C  s         
    51     -0.152931   4 C  s                 6      0.152038   1 C  s         
   103     -0.151190  11 N  px        
 
 Vector   10  Occ=2.000000D+00  E=-6.275617D-01
              MO Center= -3.3D-03,  1.2D-01, -2.6D-06, r^2= 3.3D+00
   Bfn.  Coefficient  Atom+Function         Bfn.  Coefficient  Atom+Function  
  ----- ------------  ---------------      ----- ------------  ---------------
   103      0.262715  11 N  px               47     -0.202287   4 C  s         
    63     -0.191847   5 C  px                2      0.188974   1 C  s         
    17     -0.176233   2 C  s                51     -0.176132   4 C  s         
     6      0.166533   1 C  s                34      0.162152   3 C  py        
    32      0.155953   3 C  s         
 
 Vector   11  Occ=2.000000D+00  E=-6.252082D-01
              MO Center=  5.2D-03, -3.1D-01, -1.4D-04, r^2= 3.3D+00
   Bfn.  Coefficient  Atom+Function         Bfn.  Coefficient  Atom+Function  
  ----- ------------  ---------------      ----- ------------  ---------------
    62      0.240326   5 C  s                66      0.189177   5 C  s         
   106      0.185328  11 N  s                49     -0.168148   4 C  py        
    32     -0.159136   3 C  s               102      0.156472  11 N  s         
     4     -0.153701   1 C  py               36     -0.152922   3 C  s         
 
 Vector   12  Occ=2.000000D+00  E=-5.242203D-01
              MO Center=  2.2D-03, -2.2D-01, -3.1D-04, r^2= 4.0D+00
   Bfn.  Coefficient  Atom+Function         Bfn.  Coefficient  Atom+Function  
  ----- ------------  ---------------      ----- ------------  ---------------
    64      0.240900   5 C  py               18      0.161956   2 C  px        
    33     -0.158219   3 C  px               48     -0.157538   4 C  px        
     3      0.153891   1 C  px        
 
 Vector   13  Occ=2.000000D+00  E=-4.767767D-01
              MO Center= -4.7D-03, -6.7D-03,  1.2D-04, r^2= 2.7D+00
   Bfn.  Coefficient  Atom+Function         Bfn.  Coefficient  Atom+Function  
  ----- ------------  ---------------      ----- ------------  ---------------
   103      0.294726  11 N  px               63      0.267309   5 C  px        
    49     -0.244419   4 C  py                4      0.242180   1 C  py        
    19     -0.213869   2 C  py               34      0.210651   3 C  py        
    33     -0.179383   3 C  px               18     -0.176778   2 C  px        
 
 Vector   14  Occ=2.000000D+00  E=-4.660428D-01
              MO Center=  1.2D-02, -3.2D-01, -1.0D-04, r^2= 4.8D+00
   Bfn.  Coefficient  Atom+Function         Bfn.  Coefficient  Atom+Function  
  ----- ------------  ---------------      ----- ------------  ---------------
     3      0.202575   1 C  px               48     -0.203444   4 C  px        
   106     -0.194363  11 N  s                81     -0.187430   7 H  s         
    96     -0.186916  10 H  s                66      0.176130   5 C  s         
     6     -0.152795   1 C  s                51     -0.152943   4 C  s         
 
 Vector   15  Occ=2.000000D+00  E=-4.251576D-01
              MO Center=  2.8D-03,  1.9D-02,  4.1D-05, r^2= 3.9D+00
   Bfn.  Coefficient  Atom+Function         Bfn.  Coefficient  Atom+Function  
  ----- ------------  ---------------      ----- ------------  ---------------
    48      0.214947   4 C  px                3      0.210182   1 C  px        
    18      0.201394   2 C  px               33      0.196346   3 C  px        
    34      0.190427   3 C  py               19     -0.183665   2 C  py        
     4      0.174823   1 C  py               49     -0.169389   4 C  py        
 
 Vector   16  Occ=2.000000D+00  E=-4.005641D-01
              MO Center=  7.8D-03, -7.4D-01,  1.1D-03, r^2= 3.3D+00
   Bfn.  Coefficient  Atom+Function         Bfn.  Coefficient  Atom+Function  
  ----- ------------  ---------------      ----- ------------  ---------------
    64      0.377307   5 C  py               76     -0.245325   6 H  s         
    77     -0.228304   6 H  s               104      0.209160  11 N  py        
    49     -0.162642   4 C  py                4     -0.161331   1 C  py        
    34      0.157823   3 C  py               19      0.156382   2 C  py        
 
 Vector   17  Occ=2.000000D+00  E=-3.988627D-01
              MO Center= -6.4D-03,  4.1D-01, -1.6D-03, r^2= 2.5D+00
   Bfn.  Coefficient  Atom+Function         Bfn.  Coefficient  Atom+Function  
  ----- ------------  ---------------      ----- ------------  ---------------
   105      0.315981  11 N  pz               20      0.239709   2 C  pz        
    35      0.239764   3 C  pz              109      0.191117  11 N  pz        
     5      0.179406   1 C  pz               50      0.179335   4 C  pz        
    65      0.166079   5 C  pz        
 
 Vector   18  Occ=2.000000D+00  E=-3.605493D-01
              MO Center= -1.6D-04, -1.0D-01,  2.3D-06, r^2= 4.1D+00
   Bfn.  Coefficient  Atom+Function         Bfn.  Coefficient  Atom+Function  
  ----- ------------  ---------------      ----- ------------  ---------------
    63      0.294671   5 C  px                3     -0.252374   1 C  px        
    48     -0.250012   4 C  px              103     -0.221356  11 N  px        
    18      0.215327   2 C  px               33      0.214153   3 C  px        
    87      0.154480   8 H  s                92     -0.154645   9 H  s         
    86      0.152111   8 H  s                91     -0.152258   9 H  s         
 
 Vector   19  Occ=2.000000D+00  E=-2.892968D-01
              MO Center=  1.7D-03, -2.6D-01,  3.7D-04, r^2= 2.8D+00
   Bfn.  Coefficient  Atom+Function         Bfn.  Coefficient  Atom+Function  
  ----- ------------  ---------------      ----- ------------  ---------------
    65      0.354271   5 C  pz              105     -0.336185  11 N  pz        
   109     -0.241202  11 N  pz               69      0.237744   5 C  pz        
     5      0.214431   1 C  pz               50      0.212415   4 C  pz        
     9      0.150593   1 C  pz        
 
 Vector   20  Occ=2.000000D+00  E=-2.642043D-01
              MO Center=  9.7D-04,  1.1D-01,  2.2D-04, r^2= 2.9D+00
   Bfn.  Coefficient  Atom+Function         Bfn.  Coefficient  Atom+Function  
  ----- ------------  ---------------      ----- ------------  ---------------
    20      0.293207   2 C  pz               35     -0.292642   3 C  pz        
    50     -0.282955   4 C  pz                5      0.281254   1 C  pz        
    54     -0.204395   4 C  pz                9      0.203159   1 C  pz        
    24      0.202832   2 C  pz               39     -0.202398   3 C  pz        
 
 Vector   21  Occ=2.000000D+00  E=-2.630225D-01
              MO Center= -1.6D-02,  1.1D+00, -2.0D-04, r^2= 2.4D+00
   Bfn.  Coefficient  Atom+Function         Bfn.  Coefficient  Atom+Function  
  ----- ------------  ---------------      ----- ------------  ---------------
   104      0.479176  11 N  py              108      0.365003  11 N  py        
   106      0.266793  11 N  s                 4      0.177590   1 C  py        
    49      0.177444   4 C  py               19     -0.175592   2 C  py        
    34     -0.173798   3 C  py        
 
 Vector   22  Occ=0.000000D+00  E=-2.763974D-02
              MO Center= -1.1D-03, -4.0D-02,  4.7D-04, r^2= 3.2D+00
   Bfn.  Coefficient  Atom+Function         Bfn.  Coefficient  Atom+Function  
  ----- ------------  ---------------      ----- ------------  ---------------
    69      0.475120   5 C  pz              109      0.418425  11 N  pz        
    65      0.375373   5 C  pz              105      0.369119  11 N  pz        
    24     -0.243842   2 C  pz               39     -0.238605   3 C  pz        
    20     -0.217011   2 C  pz               54     -0.217050   4 C  pz        
     9     -0.212259   1 C  pz               35     -0.212628   3 C  pz        
 
 Vector   23  Occ=0.000000D+00  E=-1.278773D-02
              MO Center=  2.0D-03,  1.3D-02,  5.1D-04, r^2= 3.3D+00
   Bfn.  Coefficient  Atom+Function         Bfn.  Coefficient  Atom+Function  
  ----- ------------  ---------------      ----- ------------  ---------------
     9      0.416271   1 C  pz               54     -0.413738   4 C  pz        
    39      0.408872   3 C  pz               24     -0.405478   2 C  pz        
    35      0.326385   3 C  pz               20     -0.323405   2 C  pz        
     5      0.318018   1 C  pz               50     -0.316241   4 C  pz        
 
 Vector   24  Occ=0.000000D+00  E= 1.050567D-01
              MO Center=  1.1D-02, -9.5D-01, -1.1D-03, r^2= 7.2D+00
   Bfn.  Coefficient  Atom+Function         Bfn.  Coefficient  Atom+Function  
  ----- ------------  ---------------      ----- ------------  ---------------
    77      1.006362   6 H  s                82      0.839089   7 H  s         
    97      0.842105  10 H  s                87      0.657869   8 H  s         
    92      0.655764   9 H  s                66     -0.646481   5 C  s         
     6     -0.614216   1 C  s                51     -0.611479   4 C  s         
    68      0.429751   5 C  py               36     -0.390168   3 C  s         
 
 Vector   25  Occ=0.000000D+00  E= 1.414547D-01
              MO Center=  7.1D-04, -8.2D-02,  9.4D-04, r^2= 3.5D+00
   Bfn.  Coefficient  Atom+Function         Bfn.  Coefficient  Atom+Function  
  ----- ------------  ---------------      ----- ------------  ---------------
     9      0.531043   1 C  pz               54      0.530279   4 C  pz        
    69     -0.532833   5 C  pz               24     -0.480738   2 C  pz        
    39     -0.480599   3 C  pz              109      0.426908  11 N  pz        
     5      0.305555   1 C  pz               50      0.305281   4 C  pz        
   105      0.304319  11 N  pz               65     -0.297673   5 C  pz        
 
 Vector   26  Occ=0.000000D+00  E= 1.486146D-01
              MO Center=  1.6D-02,  6.4D-02, -4.0D-04, r^2= 8.6D+00
   Bfn.  Coefficient  Atom+Function         Bfn.  Coefficient  Atom+Function  
  ----- ------------  ---------------      ----- ------------  ---------------
    87      1.055048   8 H  s                82      1.049614   7 H  s         
    97     -1.049773  10 H  s                92     -1.039213   9 H  s         
     6      0.782313   1 C  s                51     -0.784818   4 C  s         
    36     -0.722512   3 C  s                21      0.708297   2 C  s         
    22     -0.437360   2 C  px               37     -0.433046   3 C  px        
 
 Vector   27  Occ=0.000000D+00  E= 1.627616D-01
              MO Center= -3.6D-02,  1.2D-01, -1.0D-03, r^2= 8.6D+00
   Bfn.  Coefficient  Atom+Function         Bfn.  Coefficient  Atom+Function  
  ----- ------------  ---------------      ----- ------------  ---------------
    66      1.562929   5 C  s                92      1.252840   9 H  s         
    87      1.223266   8 H  s                77     -1.120260   6 H  s         
    21     -1.083989   2 C  s                36     -1.058400   3 C  s         
    22      0.500445   2 C  px               37     -0.472825   3 C  px        
     7     -0.466341   1 C  px               52      0.456489   4 C  px        
 
 Vector   28  Occ=0.000000D+00  E= 1.846803D-01
              MO Center=  1.7D-01, -1.2D-02, -8.0D-04, r^2= 8.4D+00
   Bfn.  Coefficient  Atom+Function         Bfn.  Coefficient  Atom+Function  
  ----- ------------  ---------------      ----- ------------  ---------------
    51     -1.480476   4 C  s                 6      1.425825   1 C  s         
    21     -1.169303   2 C  s                36      1.150900   3 C  s         
    82      1.144935   7 H  s                87     -1.100235   8 H  s         
    92      1.023717   9 H  s                97     -1.009613  10 H  s         
    37      0.682448   3 C  px               22      0.599818   2 C  px        
 
 Vector   29  Occ=0.000000D+00  E= 1.885210D-01
              MO Center= -1.4D-01, -1.3D+00, -1.2D-03, r^2= 7.3D+00
   Bfn.  Coefficient  Atom+Function         Bfn.  Coefficient  Atom+Function  
  ----- ------------  ---------------      ----- ------------  ---------------
    97     -1.393349  10 H  s                77      1.362369   6 H  s         
    82     -1.286876   7 H  s               106     -1.061775  11 N  s         
    68      0.958763   5 C  py                7     -0.820229   1 C  px        
    66     -0.809104   5 C  s                22      0.787769   2 C  px        
    52      0.789485   4 C  px               37     -0.725718   3 C  px        
 
 Vector   30  Occ=0.000000D+00  E= 2.379538D-01
              MO Center= -1.2D-03,  1.6D-02, -6.3D-04, r^2= 5.1D+00
   Bfn.  Coefficient  Atom+Function         Bfn.  Coefficient  Atom+Function  
  ----- ------------  ---------------      ----- ------------  ---------------
   106      2.368808  11 N  s                68      1.233214   5 C  py        
    77      1.170754   6 H  s                37      0.990942   3 C  px        
    22     -0.981052   2 C  px               21     -0.930335   2 C  s         
    36     -0.934580   3 C  s               108     -0.834284  11 N  py        
    66      0.649078   5 C  s                 6     -0.642850   1 C  s         
 
 Vector   31  Occ=0.000000D+00  E= 2.976466D-01
              MO Center=  1.6D-02, -5.5D-01,  9.5D-05, r^2= 5.0D+00
   Bfn.  Coefficient  Atom+Function         Bfn.  Coefficient  Atom+Function  
  ----- ------------  ---------------      ----- ------------  ---------------
     6      2.246522   1 C  s                51     -2.248977   4 C  s         
    67      1.721854   5 C  px               38     -1.365595   3 C  py        
    23      1.345626   2 C  py                7      1.075706   1 C  px        
    52      1.079878   4 C  px               87      0.808770   8 H  s         
    92     -0.804509   9 H  s               107      0.584512  11 N  px        
 
 Vector   32  Occ=0.000000D+00  E= 3.183907D-01
              MO Center=  2.2D-02,  1.8D-01,  1.0D-04, r^2= 4.3D+00
   Bfn.  Coefficient  Atom+Function         Bfn.  Coefficient  Atom+Function  
  ----- ------------  ---------------      ----- ------------  ---------------
    36     -2.148630   3 C  s                21      2.112479   2 C  s         
    53      1.430706   4 C  py                8     -1.354004   1 C  py        
   107      1.155965  11 N  px               22      0.990932   2 C  px        
    37      0.927462   3 C  px               67      0.849764   5 C  px        
    97     -0.664594  10 H  s                82      0.631387   7 H  s         
 
 Vector   33  Occ=0.000000D+00  E= 3.203118D-01
              MO Center= -2.5D-02, -3.6D-01,  1.5D-04, r^2= 4.7D+00
   Bfn.  Coefficient  Atom+Function         Bfn.  Coefficient  Atom+Function  
  ----- ------------  ---------------      ----- ------------  ---------------
    66      2.631399   5 C  s               106     -1.790054  11 N  s         
     8      1.344184   1 C  py               53      1.284849   4 C  py        
    23      1.207637   2 C  py                7     -1.182025   1 C  px        
    52      1.162294   4 C  px               38      1.152480   3 C  py        
    37     -0.871725   3 C  px               68      0.803509   5 C  py        
 
 Vector   34  Occ=0.000000D+00  E= 4.479101D-01
              MO Center= -1.4D-02,  1.3D-01, -4.1D-04, r^2= 3.9D+00
   Bfn.  Coefficient  Atom+Function         Bfn.  Coefficient  Atom+Function  
  ----- ------------  ---------------      ----- ------------  ---------------
    66      3.730012   5 C  s                 6     -3.332882   1 C  s         
    51     -3.328322   4 C  s                21      2.988556   2 C  s         
    36      2.984377   3 C  s                68      2.658746   5 C  py        
    52      2.447904   4 C  px                7     -2.380992   1 C  px        
   106     -2.011401  11 N  s                37     -1.421722   3 C  px        
 
 Vector   35  Occ=0.000000D+00  E= 4.556273D-01
              MO Center=  1.4D-02,  2.4D-01,  1.4D-04, r^2= 5.5D+00
   Bfn.  Coefficient  Atom+Function         Bfn.  Coefficient  Atom+Function  
  ----- ------------  ---------------      ----- ------------  ---------------
    67      2.286610   5 C  px               38      2.037423   3 C  py        
    23     -2.017738   2 C  py               53      1.418419   4 C  py        
     8     -1.352995   1 C  py              107     -1.195265  11 N  px        
    22     -1.178831   2 C  px               37     -1.183703   3 C  px        
     7      0.844515   1 C  px               52      0.709786   4 C  px        
 
 Vector   36  Occ=0.000000D+00  E= 5.106033D-01
              MO Center=  1.7D-03, -1.4D-01,  1.4D-03, r^2= 3.5D+00
   Bfn.  Coefficient  Atom+Function         Bfn.  Coefficient  Atom+Function  
  ----- ------------  ---------------      ----- ------------  ---------------
    20      0.492477   2 C  pz               35      0.492260   3 C  pz        
    24     -0.459113   2 C  pz               39     -0.459174   3 C  pz        
    65      0.447347   5 C  pz                5      0.435703   1 C  pz        
    50      0.435585   4 C  pz               69     -0.346584   5 C  pz        
     9     -0.275185   1 C  pz               54     -0.274760   4 C  pz        
 

 center of mass
 --------------
 x =  -0.00073079 y =   0.05304272 z =   0.00009303

 moments of inertia (a.u.)
 ------------------
         311.671613811826          -0.000000000000           0.000000000000
          -0.000000000000         300.432234535506          -0.000000000000
           0.000000000000          -0.000000000000         612.103214523496
 
     Multipole analysis of the density
     ---------------------------------
 
     L   x y z        total         alpha         beta         nuclear
     -   - - -        -----         -----         ----         -------
     0   0 0 0      0.000000    -21.000000    -21.000000     42.000000
 
     1   1 0 0      0.016263      0.008132      0.008132     -0.000000
     1   0 1 0     -1.202087     -0.601043     -0.601043     -0.000000
     1   0 0 1     -0.000938     -0.000469     -0.000469      0.000000
 
     2   2 0 0    -20.509587   -101.186433   -101.186433    181.863279
     2   1 1 0      0.101709     -0.035536     -0.035536      0.172782
     2   1 0 1     -0.021947      0.017979      0.017979     -0.057905
     2   0 2 0    -26.446359   -102.105386   -102.105386    177.764413
     2   0 1 1      0.005852     -0.003529     -0.003529      0.012910
     2   0 0 2    -27.455976    -13.728127    -13.728127      0.000279
 
 
            General Information
            -------------------
          SCF calculation type: DFT
          Wavefunction type:  closed shell.
          No. of atoms     :    11
          No. of electrons :    42
           Alpha electrons :    21
            Beta electrons :    21
          Charge           :     0
          Spin multiplicity:     1
          Use of symmetry is: off; symmetry adaption is: off
          Maximum number of iterations:  30
          This is a Direct SCF calculation.
          AO basis - number of functions:   115
                     number of shells:    51
          A Charge density fitting basis will be used.
          CD basis - number of functions:   339
                     number of shells:   114
          Convergence on energy requested: 1.00D-06
          Convergence on density requested: 1.00D-05
          Convergence on gradient requested: 5.00D-04
 
              XC Information
              --------------
                         B3LYP Method XC Potential
                     Hartree-Fock (Exact) Exchange  0.200          
                        Slater Exchange Functional  0.800 local    
                    Becke 1988 Exchange Functional  0.720 non-local
              Lee-Yang-Parr Correlation Functional  0.810          
                  VWN I RPA Correlation Functional  0.190 local    
 
             Grid Information
             ----------------
          Grid used for XC integration:  medium    
          Radial quadrature: Mura-Knowles        
          Angular quadrature: Lebedev. 
          Tag              B.-S. Rad. Rad. Pts. Rad. Cut. Ang. Pts.
          ---              ---------- --------- --------- ---------
          C                   0.70       49          10.0       434
          H                   0.35       45          11.0       434
          N                   0.65       49          10.0       434
          Grid pruning is: on 
          Number of quadrature shells:   519
          Spatial weights used:  Erf1
 
          Convergence Information
          -----------------------
          Convergence aids based upon iterative change in 
          total energy or number of iterations. 
          Levelshifting, if invoked, occurs when the 
          HOMO/LUMO gap drops below (HL_TOL): 1.00D-02
          DIIS, if invoked, will attempt to extrapolate 
          using up to (NFOCK): 10 stored Fock matrices.

                    Damping( 0%)  Levelshifting(0.5)       DIIS
                  --------------- ------------------- ---------------
          dE  on:    start            ASAP                start   
          dE off:    2 iters         30 iters            30 iters 

 
      Screening Tolerance Information
      -------------------------------
          Density screening/tol_rho: 1.00D-10
          AO Gaussian exp screening on grid/accAOfunc:  14
          CD Gaussian exp screening on grid/accCDfunc:  20
          XC Gaussian exp screening on grid/accXCfunc:  20
          Schwarz screening/accCoul: 1.00D-08

  int_init: cando_txs set to always be  F
  intd_init: cando_txs set to always be  F
 
 
                            NWChem DFT Gradient Module
                            --------------------------
 
 

  charge          =   0.00
  wavefunction    = closed shell



                         DFT ENERGY GRADIENTS

    atom               coordinates                        gradient
                 x          y          z           x          y          z
   1 C      -2.249713  -1.306507  -0.000900    0.000237  -0.002268  -0.000404
   2 C      -2.185422   1.333106  -0.000481    0.000604  -0.000048  -0.000407
   3 C       2.146298   1.397341   0.001131   -0.000556  -0.000020   0.000421
   4 C       2.287182  -1.239201   0.001868    0.000302  -0.001908   0.000421
   5 C       0.037422  -2.621499   0.000168   -0.000557  -0.000245   0.000188
   6 H       0.062141  -4.674753  -0.005386   -0.000320  -0.000192  -0.000131
   7 H       4.113597  -2.172344  -0.008245   -0.000032   0.000123  -0.000254
   8 H       3.869028   2.522600  -0.007332    0.001742   0.001530  -0.000226
   9 H      -3.941125   2.405173   0.006840   -0.001756   0.001160   0.000215
  10 H      -4.045542  -2.298028   0.006710    0.000007  -0.000211   0.000233
  11 N      -0.038957   2.691131  -0.000472    0.000330   0.002079  -0.000056
 
                 ----------------------------------------
                 |  Time  |  1-e(secs)   |  2-e(secs)   |
                 ----------------------------------------
                 |  CPU   |       2.68   |       5.07   |
                 ----------------------------------------
                 |  WALL  |       2.68   |       5.06   |
                 ----------------------------------------

@ Step       Energy      Delta E   Gmax     Grms     Xrms     Xmax   Walltime
@ ---- ---------------- -------- -------- -------- -------- -------- --------
@    0    -248.31962022  0.0D+00  0.00235  0.00074  0.00000  0.00000     66.9
                                                                    



                                Z-matrix (autoz)
                                -------- 

 Units are Angstrom for bonds and degrees for angles
 
      Type          Name      I     J     K     L     M      Value     Gradient
      ----------- --------  ----- ----- ----- ----- ----- ---------- ----------
    1 Stretch                  1     2                       1.39724    0.00235
    2 Stretch                  1     5                       1.39608   -0.00015
    3 Stretch                  1    10                       1.08555    0.00010
    4 Stretch                  2     9                       1.08860    0.00210
    5 Stretch                  2    11                       1.34410    0.00152
    6 Stretch                  3     4                       1.39719    0.00232
    7 Stretch                  3     8                       1.08888    0.00230
    8 Stretch                  3    11                       1.34386    0.00101
    9 Stretch                  4     5                       1.39729    0.00095
   10 Stretch                  4     7                       1.08535   -0.00008
   11 Stretch                  5     6                       1.08662    0.00019
   12 Bend                     1     2     9               120.01365    0.00003
   13 Bend                     1     2    11               123.71596    0.00003
   14 Bend                     1     5     4               118.53581    0.00026
   15 Bend                     1     5     6               120.58637   -0.00030
   16 Bend                     2     1     5               118.50156    0.00025
   17 Bend                     2     1    10               120.29915   -0.00003
   18 Bend                     2    11     3               117.05142   -0.00060
   19 Bend                     3     4     5               118.50868    0.00024
   20 Bend                     3     4     7               120.12135   -0.00017
   21 Bend                     4     3     8               120.09303    0.00027
   22 Bend                     4     3    11               123.68655   -0.00019
   23 Bend                     4     5     6               120.87762    0.00005
   24 Bend                     5     1    10               121.19867   -0.00023
   25 Bend                     5     4     7               121.36881   -0.00007
   26 Bend                     8     3    11               116.21981   -0.00009
   27 Bend                     9     2    11               116.27004   -0.00006
   28 Torsion                  1     2    11     3          -0.05129   -0.00000
   29 Torsion                  1     5     4     3          -0.03189    0.00000
   30 Torsion                  1     5     4     7        -179.64032    0.00009
   31 Torsion                  2     1     5     4           0.00644    0.00000
   32 Torsion                  2     1     5     6        -179.82922    0.00004
   33 Torsion                  2    11     3     4           0.02313    0.00001
   34 Torsion                  2    11     3     8         179.73775   -0.00010
   35 Torsion                  3     4     5     6         179.80328   -0.00003
   36 Torsion                  3    11     2     9         179.73202   -0.00009
   37 Torsion                  4     5     1    10        -179.70810    0.00007
   38 Torsion                  5     1     2     9        -179.73846    0.00009
   39 Torsion                  5     1     2    11           0.03714   -0.00000
   40 Torsion                  5     4     3     8        -179.68625    0.00010
   41 Torsion                  5     4     3    11           0.01785   -0.00001
   42 Torsion                  6     5     1    10           0.45623    0.00010
   43 Torsion                  6     5     4     7           0.19484    0.00006
   44 Torsion                  7     4     3     8          -0.07278    0.00001
   45 Torsion                  7     4     3    11         179.63133   -0.00010
   46 Torsion                  9     2     1    10          -0.02125    0.00002
   47 Torsion                 10     1     2    11         179.75434   -0.00007
 
 
                                 NWChem DFT Module
                                 -----------------
 
 


 Summary of "ao basis" -> "ao basis" (cartesian)
 ------------------------------------------------------------------------------
       Tag                 Description            Shells   Functions and Types
 ---------------- ------------------------------  ------  ---------------------
 C                          6-31G**                  6       15   3s2p1d
 H                          6-31G**                  3        5   2s1p
 N                          6-31G**                  6       15   3s2p1d


 
 solvent parameters
 solvname_short: h2o     
 solvname_long:  water                              
 dielec:       78.4000
 dielecinf:     1.7769
 aqueous SMD model solvent descriptors
 dielec:       78.4000
 sola:          0.8200

          ---------------
          -cosmo- solvent
          ---------------
 Cosmo: York-Karplus, doi: 10.1021/jp992097l
 dielectric constant -eps-     =  78.40
 screen = (eps-1)/(eps    )    =   0.98724
 surface charge correction     = lagrangian
 -lineq- algorithm             =   0
 -bem- low  level              =   3
 -bem- from -octahedral-
 gaussian surface charge width =   0.98000
 degree of switching           =   1.00000
 switching function tolerance  =   0.00010
 atomic radii = 
 --------------
    1  6.000  1.850
    2  6.000  1.850
    3  6.000  1.850
    4  6.000  1.850
    5  6.000  1.850
    6  1.000  1.200
    7  1.000  1.200
    8  1.000  1.200
    9  1.000  1.200
   10  1.000  1.200
   11  7.000  1.890

 solvent accessible surface
 --------------------------

 ---------- ATOMIC COORDINATES (A.U.) ------------ VDWR(ANG.) --
     1   -2.25003714   -1.30312694    0.00095581     1.850
     2   -2.18571091    1.33171268    0.00193051     1.850
     3    2.14490618    1.39597859   -0.00169247     1.850
     4    2.28603999   -1.23594642   -0.00137510     1.850
     5    0.03800009   -2.61796717   -0.00073123     1.850
     6    0.06847737   -4.67051055   -0.00396761     1.200
     7    4.11156694   -2.17127718   -0.00720454     1.200
     8    3.86483761    2.51448126   -0.00502104     1.200
     9   -3.93699672    2.40034666    0.00541784     1.200
    10   -4.04647047   -2.29301607    0.00569888     1.200
    11   -0.03970506    2.68634323   -0.00010973     1.890
 number of segments per atom =        128
 number of   points per atom =        128
 atom (   nspa,  nppa )
 ----------------------
    1 (     49,     0 )       0
    2 (     48,     0 )       0
    3 (     48,     0 )       0
    4 (     50,     0 )       0
    5 (     46,     0 )       0
    6 (     48,     0 )       0
    7 (     54,     0 )       0
    8 (     56,     0 )       0
    9 (     54,     0 )       0
   10 (     54,     0 )       0
   11 (     62,     0 )       0
 number of -cosmo- surface points =      569
 molecular surface =    111.759 angstrom**2
 molecular volume  =     62.494 angstrom**3
 ...... end of -cosmo- initialization ......


 G(SMD-CDS) energy (kcal/mol)  =    -7.503
 SMD-CDS SASA (angstrom**2)    =    47.784

  Caching 1-el integrals 
 
            General Information
            -------------------
          SCF calculation type: DFT
          Wavefunction type:  closed shell.
          No. of atoms     :    11
          No. of electrons :    42
           Alpha electrons :    21
            Beta electrons :    21
          Charge           :     0
          Spin multiplicity:     1
          Use of symmetry is: off; symmetry adaption is: off
          Maximum number of iterations:  30
          This is a Direct SCF calculation.
          AO basis - number of functions:   115
                     number of shells:    51
          A Charge density fitting basis will be used.
          CD basis - number of functions:   339
                     number of shells:   114
          Convergence on energy requested: 1.00D-06
          Convergence on density requested: 1.00D-05
          Convergence on gradient requested: 5.00D-04
 
              XC Information
              --------------
                         B3LYP Method XC Potential
                     Hartree-Fock (Exact) Exchange  0.200          
                        Slater Exchange Functional  0.800 local    
                    Becke 1988 Exchange Functional  0.720 non-local
              Lee-Yang-Parr Correlation Functional  0.810          
                  VWN I RPA Correlation Functional  0.190 local    
 
             Grid Information
             ----------------
          Grid used for XC integration:  medium    
          Radial quadrature: Mura-Knowles        
          Angular quadrature: Lebedev. 
          Tag              B.-S. Rad. Rad. Pts. Rad. Cut. Ang. Pts.
          ---              ---------- --------- --------- ---------
          C                   0.70       49          10.0       434
          H                   0.35       45          11.0       434
          N                   0.65       49          10.0       434
          Grid pruning is: on 
          Number of quadrature shells:   519
          Spatial weights used:  Erf1
 
          Convergence Information
          -----------------------
          Convergence aids based upon iterative change in 
          total energy or number of iterations. 
          Levelshifting, if invoked, occurs when the 
          HOMO/LUMO gap drops below (HL_TOL): 1.00D-02
          DIIS, if invoked, will attempt to extrapolate 
          using up to (NFOCK): 10 stored Fock matrices.

                    Damping( 0%)  Levelshifting(0.5)       DIIS
                  --------------- ------------------- ---------------
          dE  on:    start            ASAP                start   
          dE off:    2 iters         30 iters            30 iters 

 
      Screening Tolerance Information
      -------------------------------
          Density screening/tol_rho: 1.00D-10
          AO Gaussian exp screening on grid/accAOfunc:  14
          CD Gaussian exp screening on grid/accCDfunc:  20
          XC Gaussian exp screening on grid/accXCfunc:  20
          Schwarz screening/accCoul: 1.00D-08


 Loading old vectors from job with title :



   Time after variat. SCF:     66.6
 
      3 Center 2 Electron Integral Information
      ----------------------------------------
          Maximum number of 3-center 2e- integrals is:         4483275.
            This is reduced with Schwarz screening to:         2399442.
            Incore requires a per proc buffer size of:         2708638.
                  The minimum integral buffer size is:           76275
          Minimum dble words available (all nodes) is:        26199500
                   This is reduced (for later use) to:        25616712
                             Suggested buffer size is:         2708638
                              no. integral batches is:            1000

          Incore memory use for 3-center 2e- integrals is turned off. 
   Time prior to 1st pass:     66.6

 Grid_pts file          = ./Molecule.gridpts.0
 Record size in doubles =  12289        No. of grid_pts per rec  =   3070
 Max. records in memory =     82        Max. recs in file   = *********


           Memory utilization after 1st SCF pass: 
           Heap Space remaining (MW):       12.09            12085332
          Stack Space remaining (MW):       13.11            13106292

   convergence    iter        energy       DeltaE   RMS-Dens  Diis-err    time
 ---------------- ----- ----------------- --------- --------- ---------  ------
     COSMO solvation phase
 d= 0,ls=0.0,diis     1   -248.3196451880 -4.54D+02  8.73D-05  5.59D-05    73.6
 d= 0,ls=0.0,diis     2   -248.3196540045 -8.82D-06  3.50D-05  1.14D-05    80.3
 d= 0,ls=0.0,diis     3   -248.3196547314 -7.27D-07  1.47D-05  6.09D-06    87.1
 d= 0,ls=0.0,diis     4   -248.3196554881 -7.57D-07  3.70D-06  2.82D-07    93.9


         Total DFT energy =     -248.319655488130
      One electron energy =     -741.605402650401
           Coulomb energy =      323.236877534542
    Exchange-Corr. energy =      -35.882342936064
 Nuclear repulsion energy =      205.690341842909

    Dispersion correction =       -0.006141682215

 Numeric. integr. density =       42.000011167350

     Total iterative time =     27.3s


                                COSMO-SMD solvation results
                                ---------------------------
 Reference for the SMD model:
 Marenich, A. V.; Cramer, C. J.; Truhlar, D. G. J. Phys. Chem. B 2009, 113, 6378

         internal energy in solvent <Psi(s)|H|Psi(s)> =      -248.3034887886
   total free energy in solvent <Psi(s)|H+V/2|Psi(s)> =      -248.3138410294
 polarization energy contribution <Psi(s)|V/2|Psi(s)> =        -0.0103522408 (   -6.50 kcal/mol)
    total free energy in solvent including G(SMD-CDS) =      -248.3257971703
                       G(SMD-CDS) energy contribution =        -0.0119561409 (   -7.50 kcal/mol)
 
                       DFT Final Molecular Orbital Analysis
                       ------------------------------------
 
 Vector    6  Occ=2.000000D+00  E=-1.019825D+01
              MO Center=  3.2D-01, -6.7D-01, -2.7D-04, r^2= 1.4D+00
   Bfn.  Coefficient  Atom+Function         Bfn.  Coefficient  Atom+Function  
  ----- ------------  ---------------      ----- ------------  ---------------
    46      0.787951   4 C  s                 1      0.602709   1 C  s         
 
 Vector    7  Occ=2.000000D+00  E=-9.414795D-01
              MO Center= -1.2D-02,  8.3D-01, -2.7D-05, r^2= 1.2D+00
   Bfn.  Coefficient  Atom+Function         Bfn.  Coefficient  Atom+Function  
  ----- ------------  ---------------      ----- ------------  ---------------
   106      0.362379  11 N  s               102      0.324638  11 N  s         
    17      0.191319   2 C  s                32      0.191450   3 C  s         
   101     -0.161202  11 N  s         
 
 Vector    8  Occ=2.000000D+00  E=-8.019311D-01
              MO Center=  8.2D-03, -6.1D-01, -2.6D-04, r^2= 2.0D+00
   Bfn.  Coefficient  Atom+Function         Bfn.  Coefficient  Atom+Function  
  ----- ------------  ---------------      ----- ------------  ---------------
    62      0.285523   5 C  s                66      0.220919   5 C  s         
   106     -0.217260  11 N  s                 2      0.207782   1 C  s         
    47      0.207564   4 C  s               102     -0.184888  11 N  s         
 
 Vector    9  Occ=2.000000D+00  E=-7.606464D-01
              MO Center= -2.0D-03,  1.5D-01, -6.2D-05, r^2= 2.7D+00
   Bfn.  Coefficient  Atom+Function         Bfn.  Coefficient  Atom+Function  
  ----- ------------  ---------------      ----- ------------  ---------------
    17      0.241097   2 C  s                32     -0.240988   3 C  s         
     2      0.210564   1 C  s                47     -0.210795   4 C  s         
    21      0.173104   2 C  s                36     -0.173059   3 C  s         
     6      0.151886   1 C  s                51     -0.152039   4 C  s         
   103     -0.151415  11 N  px        
 
 Vector   10  Occ=2.000000D+00  E=-6.276897D-01
              MO Center= -2.6D-03,  1.2D-01, -1.2D-04, r^2= 3.3D+00
   Bfn.  Coefficient  Atom+Function         Bfn.  Coefficient  Atom+Function  
  ----- ------------  ---------------      ----- ------------  ---------------
   103      0.263484  11 N  px               47     -0.196954   4 C  s         
     2      0.195685   1 C  s                63     -0.192379   5 C  px        
     6      0.171410   1 C  s                51     -0.172260   4 C  s         
    17     -0.167051   2 C  s                32      0.164942   3 C  s         
    19     -0.154883   2 C  py               34      0.155422   3 C  py        
 
 Vector   11  Occ=2.000000D+00  E=-6.257042D-01
              MO Center=  5.0D-03, -3.0D-01, -2.6D-04, r^2= 3.3D+00
   Bfn.  Coefficient  Atom+Function         Bfn.  Coefficient  Atom+Function  
  ----- ------------  ---------------      ----- ------------  ---------------
    62      0.240830   5 C  s                66      0.189084   5 C  s         
   106      0.185288  11 N  s                49     -0.163668   4 C  py        
     4     -0.159095   1 C  py              102      0.156754  11 N  s         
 
 Vector   12  Occ=2.000000D+00  E=-5.247267D-01
              MO Center=  2.9D-03, -2.2D-01, -3.3D-04, r^2= 4.0D+00
   Bfn.  Coefficient  Atom+Function         Bfn.  Coefficient  Atom+Function  
  ----- ------------  ---------------      ----- ------------  ---------------
    64      0.240417   5 C  py               18      0.162543   2 C  px        
    33     -0.158370   3 C  px               48     -0.155966   4 C  px        
     3      0.152812   1 C  px        
 
 Vector   13  Occ=2.000000D+00  E=-4.771731D-01
              MO Center= -1.3D-03, -4.7D-03, -9.2D-05, r^2= 2.7D+00
   Bfn.  Coefficient  Atom+Function         Bfn.  Coefficient  Atom+Function  
  ----- ------------  ---------------      ----- ------------  ---------------
   103      0.295261  11 N  px               63      0.267308   5 C  px        
    49     -0.244159   4 C  py                4      0.241337   1 C  py        
    19     -0.213903   2 C  py               34      0.208809   3 C  py        
    33     -0.182170   3 C  px               18     -0.176472   2 C  px        
 
 Vector   14  Occ=2.000000D+00  E=-4.660479D-01
              MO Center=  5.8D-03, -3.3D-01, -1.8D-04, r^2= 4.7D+00
   Bfn.  Coefficient  Atom+Function         Bfn.  Coefficient  Atom+Function  
  ----- ------------  ---------------      ----- ------------  ---------------
    48     -0.205191   4 C  px                3      0.202687   1 C  px        
   106     -0.194270  11 N  s                81     -0.187657   7 H  s         
    96     -0.187657  10 H  s                66      0.176153   5 C  s         
     6     -0.152727   1 C  s                51     -0.152717   4 C  s         
 
 Vector   15  Occ=2.000000D+00  E=-4.257095D-01
              MO Center= -5.1D-04,  2.5D-02, -7.2D-05, r^2= 3.9D+00
   Bfn.  Coefficient  Atom+Function         Bfn.  Coefficient  Atom+Function  
  ----- ------------  ---------------      ----- ------------  ---------------
    48      0.213595   4 C  px                3      0.208364   1 C  px        
    18      0.202333   2 C  px               33      0.196671   3 C  px        
    34      0.191035   3 C  py               19     -0.185205   2 C  py        
     4      0.176490   1 C  py               49     -0.170365   4 C  py        
 
 Vector   16  Occ=2.000000D+00  E=-4.005249D-01
              MO Center=  1.1D-02, -7.4D-01,  7.0D-04, r^2= 3.3D+00
   Bfn.  Coefficient  Atom+Function         Bfn.  Coefficient  Atom+Function  
  ----- ------------  ---------------      ----- ------------  ---------------
    64      0.377970   5 C  py               76     -0.245807   6 H  s         
    77     -0.228860   6 H  s               104      0.208660  11 N  py        
    49     -0.163870   4 C  py                4     -0.161214   1 C  py        
    34      0.158596   3 C  py               19      0.155853   2 C  py        
 
 Vector   17  Occ=2.000000D+00  E=-3.992646D-01
              MO Center= -6.2D-03,  4.1D-01, -1.4D-03, r^2= 2.4D+00
   Bfn.  Coefficient  Atom+Function         Bfn.  Coefficient  Atom+Function  
  ----- ------------  ---------------      ----- ------------  ---------------
   105      0.316009  11 N  pz               20      0.239913   2 C  pz        
    35      0.240007   3 C  pz              109      0.190988  11 N  pz        
     5      0.179515   1 C  pz               50      0.179549   4 C  pz        
    65      0.165963   5 C  pz        
 
 Vector   18  Occ=2.000000D+00  E=-3.606123D-01
              MO Center=  8.2D-04, -1.1D-01, -1.2D-04, r^2= 4.1D+00
   Bfn.  Coefficient  Atom+Function         Bfn.  Coefficient  Atom+Function  
  ----- ------------  ---------------      ----- ------------  ---------------
    63      0.295638   5 C  px                3     -0.253304   1 C  px        
    48     -0.251495   4 C  px              103     -0.220592  11 N  px        
    18      0.214086   2 C  px               33      0.213117   3 C  px        
    87      0.153777   8 H  s                92     -0.153846   9 H  s         
    86      0.151459   8 H  s                91     -0.151518   9 H  s         
 
 Vector   19  Occ=2.000000D+00  E=-2.891770D-01
              MO Center=  3.2D-03, -2.6D-01, -3.1D-05, r^2= 2.8D+00
   Bfn.  Coefficient  Atom+Function         Bfn.  Coefficient  Atom+Function  
  ----- ------------  ---------------      ----- ------------  ---------------
    65      0.354402   5 C  pz              105     -0.336323  11 N  pz        
   109     -0.241255  11 N  pz               69      0.237849   5 C  pz        
     5      0.213610   1 C  pz               50      0.213117   4 C  pz        
     9      0.150127   1 C  pz        
 
 Vector   20  Occ=2.000000D+00  E=-2.644952D-01
              MO Center= -6.1D-04,  3.8D-02,  2.9D-05, r^2= 2.9D+00
   Bfn.  Coefficient  Atom+Function         Bfn.  Coefficient  Atom+Function  
  ----- ------------  ---------------      ----- ------------  ---------------
    20      0.302167   2 C  pz               35     -0.301857   3 C  pz        
     5      0.290678   1 C  pz               50     -0.291067   4 C  pz        
     9      0.209724   1 C  pz               54     -0.210015   4 C  pz        
    24      0.208789   2 C  pz               39     -0.208550   3 C  pz        
 
 Vector   21  Occ=2.000000D+00  E=-2.627194D-01
              MO Center= -1.7D-02,  1.2D+00, -1.2D-04, r^2= 2.3D+00
   Bfn.  Coefficient  Atom+Function         Bfn.  Coefficient  Atom+Function  
  ----- ------------  ---------------      ----- ------------  ---------------
   104      0.494638  11 N  py              108      0.377123  11 N  py        
   106      0.273742  11 N  s                 4      0.182713   1 C  py        
    49      0.182635   4 C  py               19     -0.180718   2 C  py        
    34     -0.178851   3 C  py        
 
 Vector   22  Occ=0.000000D+00  E=-2.748293D-02
              MO Center=  4.2D-04, -4.2D-02,  4.3D-05, r^2= 3.2D+00
   Bfn.  Coefficient  Atom+Function         Bfn.  Coefficient  Atom+Function  
  ----- ------------  ---------------      ----- ------------  ---------------
    69      0.475859   5 C  pz              109      0.418473  11 N  pz        
    65      0.375746   5 C  pz              105      0.368831  11 N  pz        
    24     -0.241192   2 C  pz               39     -0.240554   3 C  pz        
     9     -0.214537   1 C  pz               20     -0.214731   2 C  pz        
    54     -0.215363   4 C  pz               35     -0.214170   3 C  pz        
 
 Vector   23  Occ=0.000000D+00  E=-1.225647D-02
              MO Center= -6.3D-04,  1.3D-02,  9.5D-05, r^2= 3.3D+00
   Bfn.  Coefficient  Atom+Function         Bfn.  Coefficient  Atom+Function  
  ----- ------------  ---------------      ----- ------------  ---------------
     9      0.416204   1 C  pz               54     -0.415664   4 C  pz        
    24     -0.407868   2 C  pz               39      0.408217   3 C  pz        
    20     -0.324628   2 C  pz               35      0.324970   3 C  pz        
     5      0.317279   1 C  pz               50     -0.316886   4 C  pz        
 
 Vector   24  Occ=0.000000D+00  E= 1.053457D-01
              MO Center=  1.6D-02, -9.6D-01, -8.2D-04, r^2= 7.2D+00
   Bfn.  Coefficient  Atom+Function         Bfn.  Coefficient  Atom+Function  
  ----- ------------  ---------------      ----- ------------  ---------------
[...]
   14 Bend                     1     5     4               118.52290   -0.00001
   15 Bend                     1     5     6               120.76171    0.00003
   16 Bend                     2     1     5               118.48410    0.00002
   17 Bend                     2     1    10               120.24935   -0.00001
   18 Bend                     2    11     3               117.15139   -0.00003
   19 Bend                     3     4     5               118.49851    0.00004
   20 Bend                     3     4     7               120.22312    0.00000
   21 Bend                     4     3     8               119.95401   -0.00001
   22 Bend                     4     3    11               123.66568   -0.00002
   23 Bend                     4     5     6               120.71538   -0.00002
   24 Bend                     5     1    10               121.26651   -0.00001
   25 Bend                     5     4     7               121.27830   -0.00004
   26 Bend                     8     3    11               116.38031    0.00003
   27 Bend                     9     2    11               116.32662    0.00001
   28 Torsion                  1     2    11     3          -0.02801   -0.00001
   29 Torsion                  1     5     4     3          -0.02735   -0.00001
   30 Torsion                  1     5     4     7        -179.93174    0.00001
   31 Torsion                  2     1     5     4           0.00092   -0.00000
   32 Torsion                  2     1     5     6        -179.95450    0.00001
   33 Torsion                  2    11     3     4          -0.00123   -0.00000
   34 Torsion                  2    11     3     8        -179.98990    0.00000
   35 Torsion                  3     4     5     6         179.92809   -0.00001
   36 Torsion                  3    11     2     9         179.99282   -0.00000
   37 Torsion                  4     5     1    10        -179.92479    0.00001
   38 Torsion                  5     1     2     9        -179.99326    0.00001
   39 Torsion                  5     1     2    11           0.02829    0.00001
   40 Torsion                  5     4     3     8        -179.98293    0.00001
   41 Torsion                  5     4     3    11           0.02878    0.00001
   42 Torsion                  6     5     1    10           0.11979    0.00002
   43 Torsion                  6     5     4     7           0.02371    0.00001
   44 Torsion                  7     4     3     8          -0.07750   -0.00001
   45 Torsion                  7     4     3    11         179.93421   -0.00001
   46 Torsion                  9     2     1    10          -0.06677   -0.00001
   47 Torsion                 10     1     2    11         179.95478   -0.00001
 

      ----------------------
      Optimization converged
      ----------------------


  Step       Energy      Delta E   Gmax     Grms     Xrms     Xmax   Walltime
  ---- ---------------- -------- -------- -------- -------- -------- --------
@    2    -248.31965636 -8.7D-07  0.00007  0.00002  0.00053  0.00127    132.7
                                     ok       ok       ok       ok  



                                Z-matrix (autoz)
                                -------- 

 Units are Angstrom for bonds and degrees for angles
 
      Type          Name      I     J     K     L     M      Value     Gradient
      ----------- --------  ----- ----- ----- ----- ----- ---------- ----------
    1 Stretch                  1     2                       1.39470   -0.00002
    2 Stretch                  1     5                       1.39653   -0.00002
    3 Stretch                  1    10                       1.08544    0.00000
    4 Stretch                  2     9                       1.08558   -0.00001
    5 Stretch                  2    11                       1.34258    0.00003
    6 Stretch                  3     4                       1.39479    0.00003
    7 Stretch                  3     8                       1.08561   -0.00000
    8 Stretch                  3    11                       1.34240   -0.00003
    9 Stretch                  4     5                       1.39641   -0.00007
   10 Stretch                  4     7                       1.08550    0.00001
   11 Stretch                  5     6                       1.08629   -0.00001
   12 Bend                     1     2     9               119.99597   -0.00000
   13 Bend                     1     2    11               123.67741   -0.00000
   14 Bend                     1     5     4               118.52290   -0.00001
   15 Bend                     1     5     6               120.76171    0.00003
   16 Bend                     2     1     5               118.48410    0.00002
   17 Bend                     2     1    10               120.24935   -0.00001
   18 Bend                     2    11     3               117.15139   -0.00003
   19 Bend                     3     4     5               118.49851    0.00004
   20 Bend                     3     4     7               120.22312    0.00000
   21 Bend                     4     3     8               119.95401   -0.00001
   22 Bend                     4     3    11               123.66568   -0.00002
   23 Bend                     4     5     6               120.71538   -0.00002
   24 Bend                     5     1    10               121.26651   -0.00001
   25 Bend                     5     4     7               121.27830   -0.00004
   26 Bend                     8     3    11               116.38031    0.00003
   27 Bend                     9     2    11               116.32662    0.00001
   28 Torsion                  1     2    11     3          -0.02801   -0.00001
   29 Torsion                  1     5     4     3          -0.02735   -0.00001
   30 Torsion                  1     5     4     7        -179.93174    0.00001
   31 Torsion                  2     1     5     4           0.00092   -0.00000
   32 Torsion                  2     1     5     6        -179.95450    0.00001
   33 Torsion                  2    11     3     4          -0.00123   -0.00000
   34 Torsion                  2    11     3     8        -179.98990    0.00000
   35 Torsion                  3     4     5     6         179.92809   -0.00001
   36 Torsion                  3    11     2     9         179.99282   -0.00000
   37 Torsion                  4     5     1    10        -179.92479    0.00001
   38 Torsion                  5     1     2     9        -179.99326    0.00001
   39 Torsion                  5     1     2    11           0.02829    0.00001
   40 Torsion                  5     4     3     8        -179.98293    0.00001
   41 Torsion                  5     4     3    11           0.02878    0.00001
   42 Torsion                  6     5     1    10           0.11979    0.00002
   43 Torsion                  6     5     4     7           0.02371    0.00001
   44 Torsion                  7     4     3     8          -0.07750   -0.00001
   45 Torsion                  7     4     3    11         179.93421   -0.00001
   46 Torsion                  9     2     1    10          -0.06677   -0.00001
   47 Torsion                 10     1     2    11         179.95478   -0.00001
 
 
 
                         Geometry "geometry" -> "geometry"
                         ---------------------------------
 
 Output coordinates in angstroms (scale by  1.889725989 to convert to a.u.)
 
  No.       Tag          Charge          X              Y              Z
 ---- ---------------- ---------- -------------- -------------- --------------
    1 C                    6.0000    -1.19059223    -0.68953161     0.00087547
    2 C                    6.0000    -1.15634799     0.70474519     0.00140127
    3 C                    6.0000     1.13457448     0.73867496    -0.00133812
    4 C                    6.0000     1.20970079    -0.65408572    -0.00140234
    5 C                    6.0000     0.02016454    -1.38549538    -0.00056954
    6 H                    1.0000     0.03667075    -2.47166104    -0.00176201
    7 H                    1.0000     2.17571326    -1.14917701    -0.00363563
    8 H                    1.0000     2.04461136     1.33059962    -0.00225518
    9 H                    1.0000    -2.08291439     1.27038819     0.00263095
   10 H                    1.0000    -2.14137673    -1.21314880     0.00278433
   11 N                    7.0000    -0.02114783     1.42157173     0.00004352
 
      Atomic Mass 
      ----------- 
 
      C                 12.000000
      H                  1.007825
      N                 14.003070
 

 Effective nuclear repulsion energy (a.u.)     205.7039090500

            Nuclear Dipole moment (a.u.) 
            ----------------------------
        X                 Y               Z
 ---------------- ---------------- ----------------
    -0.0195266941     0.0072712300    -0.0153680619
 
 
                Final and change from initial internal coordinates
                --------------------------------------------------
 


                                Z-matrix (autoz)
                                -------- 

 Units are Angstrom for bonds and degrees for angles
 
      Type          Name      I     J     K     L     M      Value       Change
      ----------- --------  ----- ----- ----- ----- ----- ---------- ----------
    1 Stretch                  1     2                       1.39470   -0.00254
    2 Stretch                  1     5                       1.39653    0.00045
    3 Stretch                  1    10                       1.08544   -0.00011
    4 Stretch                  2     9                       1.08558   -0.00302
    5 Stretch                  2    11                       1.34258   -0.00152
    6 Stretch                  3     4                       1.39479   -0.00240
    7 Stretch                  3     8                       1.08561   -0.00327
    8 Stretch                  3    11                       1.34240   -0.00146
    9 Stretch                  4     5                       1.39641   -0.00088
   10 Stretch                  4     7                       1.08550    0.00015
   11 Stretch                  5     6                       1.08629   -0.00033
   12 Bend                     1     2     9               119.99597   -0.01767
   13 Bend                     1     2    11               123.67741   -0.03855
   14 Bend                     1     5     4               118.52290   -0.01291
   15 Bend                     1     5     6               120.76171    0.17534
   16 Bend                     2     1     5               118.48410   -0.01746
   17 Bend                     2     1    10               120.24935   -0.04980
   18 Bend                     2    11     3               117.15139    0.09997
   19 Bend                     3     4     5               118.49851   -0.01017
   20 Bend                     3     4     7               120.22312    0.10176
   21 Bend                     4     3     8               119.95401   -0.13902
   22 Bend                     4     3    11               123.66568   -0.02087
   23 Bend                     4     5     6               120.71538   -0.16224
   24 Bend                     5     1    10               121.26651    0.06784
   25 Bend                     5     4     7               121.27830   -0.09050
   26 Bend                     8     3    11               116.38031    0.16050
   27 Bend                     9     2    11               116.32662    0.05657
   28 Torsion                  1     2    11     3          -0.02801    0.02328
   29 Torsion                  1     5     4     3          -0.02735    0.00454
   30 Torsion                  1     5     4     7        -179.93174   -0.29141
   31 Torsion                  2     1     5     4           0.00092   -0.00552
   32 Torsion                  2     1     5     6        -179.95450   -0.12528
   33 Torsion                  2    11     3     4          -0.00123   -0.02436
   34 Torsion                  2    11     3     8        -179.98990    0.27234
   35 Torsion                  3     4     5     6         179.92809    0.12482
   36 Torsion                  3    11     2     9         179.99282    0.26080
   37 Torsion                  4     5     1    10        -179.92479   -0.21668
   38 Torsion                  5     1     2     9        -179.99326   -0.25480
   39 Torsion                  5     1     2    11           0.02829   -0.00884
   40 Torsion                  5     4     3     8        -179.98293   -0.29668
   41 Torsion                  5     4     3    11           0.02878    0.01093
   42 Torsion                  6     5     1    10           0.11979   -0.33644
   43 Torsion                  6     5     4     7           0.02371   -0.17113
   44 Torsion                  7     4     3     8          -0.07750   -0.00472
   45 Torsion                  7     4     3    11         179.93421    0.30288
   46 Torsion                  9     2     1    10          -0.06677   -0.04552
   47 Torsion                 10     1     2    11         179.95478    0.20044
 
 ==============================================================================
                                internuclear distances
 ------------------------------------------------------------------------------
       center one      |      center two      | atomic units |  angstroms
 ------------------------------------------------------------------------------
    2 C                |   1 C                |     2.63560  |     1.39470
    4 C                |   3 C                |     2.63576  |     1.39479
    5 C                |   1 C                |     2.63906  |     1.39653
    5 C                |   4 C                |     2.63883  |     1.39641
    6 H                |   5 C                |     2.05279  |     1.08629
    7 H                |   4 C                |     2.05129  |     1.08550
    8 H                |   3 C                |     2.05150  |     1.08561
    9 H                |   2 C                |     2.05144  |     1.08558
   10 H                |   1 C                |     2.05118  |     1.08544
   11 N                |   2 C                |     2.53711  |     1.34258
   11 N                |   3 C                |     2.53677  |     1.34240
 ------------------------------------------------------------------------------
                         number of included internuclear distances:         11
 ==============================================================================



 ==============================================================================
                                 internuclear angles
 ------------------------------------------------------------------------------
        center 1       |       center 2       |       center 3       |  degrees
 ------------------------------------------------------------------------------
    2 C                |   1 C                |   5 C                |   118.48
    2 C                |   1 C                |  10 H                |   120.25
    5 C                |   1 C                |  10 H                |   121.27
    1 C                |   2 C                |   9 H                |   120.00
    1 C                |   2 C                |  11 N                |   123.68
    9 H                |   2 C                |  11 N                |   116.33
    4 C                |   3 C                |   8 H                |   119.95
    4 C                |   3 C                |  11 N                |   123.67
    8 H                |   3 C                |  11 N                |   116.38
    3 C                |   4 C                |   5 C                |   118.50
    3 C                |   4 C                |   7 H                |   120.22
    5 C                |   4 C                |   7 H                |   121.28
    1 C                |   5 C                |   4 C                |   118.52
    1 C                |   5 C                |   6 H                |   120.76
    4 C                |   5 C                |   6 H                |   120.72
    2 C                |  11 N                |   3 C                |   117.15
 ------------------------------------------------------------------------------
                            number of included internuclear angles:         16
 ==============================================================================




 Task  times  cpu:      131.6s     wall:      132.5s
 
 
                                NWChem Input Module
                                -------------------
 
 
 Summary of allocated global arrays
-----------------------------------
  No active global arrays



                         GA Statistics for process    0
                         ------------------------------

       create   destroy   get      put      acc     scatter   gather  read&inc
calls:  483      483     2.68e+05 2.90e+04 1.08e+05    0        0     2.58e+04 
number of processes/call 1.00e+00 1.00e+00 1.00e+00 0.00e+00 0.00e+00
bytes total:             2.90e+08 6.91e+07 1.20e+08 0.00e+00 0.00e+00 2.07e+05
bytes remote:            0.00e+00 0.00e+00 0.00e+00 0.00e+00 0.00e+00 0.00e+00
Max memory consumed for GA by this process: 4304976 bytes
 
MA_summarize_allocated_blocks: starting scan ...
MA_summarize_allocated_blocks: scan completed: 0 heap blocks, 0 stack blocks
MA usage statistics:

	allocation statistics:
					      heap	     stack
					      ----	     -----
	current number of blocks	         0	         0
	maximum number of blocks	        32	        53
	current total bytes		         0	         0
	maximum total bytes		   8223984	  33291112
	maximum total K-bytes		      8224	     33292
	maximum total M-bytes		         9	        34
 
 
                                     CITATION
                                     --------
                Please cite the following reference when publishing
                           results obtained with NWChem:
 
                 M. Valiev, E.J. Bylaska, N. Govind, K. Kowalski,
              T.P. Straatsma, H.J.J. van Dam, D. Wang, J. Nieplocha,
                        E. Apra, T.L. Windus, W.A. de Jong
                 "NWChem: a comprehensive and scalable open-source
                  solution for large scale molecular simulations"
                      Comput. Phys. Commun. 181, 1477 (2010)
                           doi:10.1016/j.cpc.2010.04.018
 
                                      AUTHORS
                                      -------
          E. Apra, E. J. Bylaska, W. A. de Jong, N. Govind, K. Kowalski,
       T. P. Straatsma, M. Valiev, H. J. J. van Dam, D. Wang, T. L. Windus,
        J. Hammond, J. Autschbach, K. Bhaskaran-Nair, J. Brabec, K. Lopata,
       S. A. Fischer, S. Krishnamoorthy, W. Ma, M. Klemm, O. Villa, Y. Chen,
    V. Anisimov, F. Aquino, S. Hirata, M. T. Hackler, T. Risthaus, M. Malagoli,
       A. Marenich, A. Otero-de-la-Roza, J. Mullin, P. Nichols, R. Peverati,
     J. Pittner, Y. Zhao, P.-D. Fan, A. Fonari, M. Williamson, R. J. Harrison,
       J. R. Rehr, M. Dupuis, D. Silverstein, D. M. A. Smith, J. Nieplocha,
        V. Tipparaju, M. Krishnan, B. E. Van Kuiken, A. Vazquez-Mayagoitia,
        L. Jensen, M. Swart, Q. Wu, T. Van Voorhis, A. A. Auer, M. Nooijen,
      L. D. Crosby, E. Brown, G. Cisneros, G. I. Fann, H. Fruchtl, J. Garza,
        K. Hirao, R. A. Kendall, J. A. Nichols, K. Tsemekhman, K. Wolinski,
     J. Anchell, D. E. Bernholdt, P. Borowski, T. Clark, D. Clerc, H. Dachsel,
   M. J. O. Deegan, K. Dyall, D. Elwood, E. Glendening, M. Gutowski, A. C. Hess,
         J. Jaffe, B. G. Johnson, J. Ju, R. Kobayashi, R. Kutteh, Z. Lin,
   R. Littlefield, X. Long, B. Meng, T. Nakajima, S. Niu, L. Pollack, M. Rosing,
   K. Glaesemann, G. Sandrone, M. Stave, H. Taylor, G. Thomas, J. H. van Lenthe,
                               A. T. Wong, Z. Zhang.

 Total times  cpu:      131.6s     wall:      132.8s
Job finished on tiger-r11n1 at Tue Dec 29 13:36:38 EST 2015
